 Gaussian 16, Revision C.01,
 Gaussian 16:  ES64L-G16RevC.01  3-Jul-2019

 -----------------------------
 # b3lyp/6-31g(d,p) geom=check
 -----------------------------

 ----
 test
 ----
 Structure from the checkpoint file:  "anion_0.chk"
 Charge = -1 Multiplicity = 2

                         Standard orientation:
 ---------------------------------------------------------------------
 Center     Atomic      Atomic             Coordinates (Angstroms)
 Number     Number       Type             X           Y           Z
 ---------------------------------------------------------------------
      1          6           0       -0.855164    0.000004   -0.443113
      2          6           0        0.613457    0.000002   -0.002510
      3          9           0        0.724481   -0.000005    1.330284
      4          9           0        1.229332   -1.090926   -0.489668
      5          9           0        1.229338    1.090929   -0.489659
      6          9           0       -1.459257   -1.104134    0.058372
      7          9           0       -1.459264    1.104133    0.058371
      8          1           0       -0.931433    0.000000   -1.535562
 ---------------------------------------------------------------------

 SCF Done:  E(UB3LYP) =  -575.826811440     A.U. after   19 cycles

 The electronic state is 2-A.
 Alpha  occ. eigenvalues --  -24.49372 -24.47314 -24.47314 -24.43564 -24.43563
 Alpha  occ. eigenvalues --  -10.14155 -10.05175  -1.06528  -0.99216  -0.98435
 Alpha  occ. eigenvalues --   -0.97631  -0.93769  -0.50190  -0.42173  -0.35276
 Alpha  occ. eigenvalues --   -0.35142  -0.33365  -0.28954  -0.28761  -0.22723
 Alpha  occ. eigenvalues --   -0.22530  -0.20764  -0.18984  -0.18896  -0.16820
 Alpha  occ. eigenvalues --   -0.16425  -0.14769  -0.14310  -0.07696   0.28688
 Alpha virt. eigenvalues --    0.34301   0.38128   0.44455   0.48470   0.49971
 Alpha virt. eigenvalues --    0.53211   0.69499   0.73589   0.75904   0.78526
 Alpha virt. eigenvalues --    0.78572   0.87161   0.94400   1.05914   1.17276

  Beta  occ. eigenvalues --  -24.49313 -24.46972 -24.46972 -24.43079 -24.43078
  Beta  occ. eigenvalues --  -10.13720 -10.04623  -1.05963  -0.98243  -0.98007
  Beta  occ. eigenvalues --   -0.96782  -0.92612  -0.48665  -0.41460  -0.34944
  Beta  occ. eigenvalues --   -0.33715  -0.32797  -0.28167  -0.27131  -0.22139
  Beta  occ. eigenvalues --   -0.22132  -0.19883  -0.18810  -0.18509  -0.16413
  Beta  occ. eigenvalues --   -0.15955  -0.13720  -0.13466  -0.06818
  Beta virt. eigenvalues --    0.34887   0.38833   0.39018   0.44982   0.50588
  Beta virt. eigenvalues --    0.52530   0.54680   0.69771   0.74035   0.78395
  Beta virt. eigenvalues --    0.78863   0.80562   0.87557   0.95730   1.06393

 Mulliken charges and spin densities:
               1          2
     1  C    0.090849   0.605774
     2  C    0.578186   0.286191
     3  F   -0.321433   0.001093
     4  F   -0.321543   0.034275
     5  F   -0.321541   0.034274
     6  F   -0.327997   0.033239
     7  F   -0.327993   0.033236
     8  H   -0.048529  -0.028081
 Sum of Mulliken charges =  -1.00000   1.00000

 Dipole moment (field-independent basis, Debye):
    X=              1.0103    Y=              0.0000    Z=              0.0895  Tot=              1.0142
 Quadrupole moment (field-independent basis, Debye-Ang):
   XX=            -45.0203   YY=            -43.2611   ZZ=            -38.7475
   XY=             -0.0000   XZ=              0.6296   YZ=              0.0000

 Normal termination of Gaussian 16 at Thu Jan 19 14:35:29 2023.
