 Gaussian 16, Revision C.01,
 Gaussian 16:  ES64L-G16RevC.01  3-Jul-2019

 -----------------------------
 # b3lyp/6-31g(d,p) geom=check
 -----------------------------

 ----
 test
 ----
 Structure from the checkpoint file:  "anion_1.chk"
 Charge = -1 Multiplicity = 2

                         Standard orientation:
 ---------------------------------------------------------------------
 Center     Atomic      Atomic             Coordinates (Angstroms)
 Number     Number       Type             X           Y           Z
 ---------------------------------------------------------------------
      1          6           0       -0.689060    0.000004   -0.325277
      2          6           0        0.689060    0.000001    0.325278
      3          9           0        1.363179   -1.105242   -0.090688
      4          9           0        1.363188    1.105238   -0.090695
      5          9           0       -1.363181   -1.105240    0.090687
      6          9           0       -1.363187    1.105238    0.090695
      7          1           0       -0.620660    0.000008   -1.418648
      8          1           0        0.620662    0.000007    1.418649
 ---------------------------------------------------------------------

 SCF Done:  E(UB3LYP) =  -476.582554651     A.U. after   21 cycles

 The electronic state is 2-A.
 Alpha  occ. eigenvalues --  -24.43800 -24.43800 -24.43800 -24.43800 -10.05303
 Alpha  occ. eigenvalues --  -10.05278  -0.99946  -0.98462  -0.94224  -0.93270
 Alpha  occ. eigenvalues --   -0.49217  -0.40324  -0.31502  -0.30822  -0.29673
 Alpha  occ. eigenvalues --   -0.27487  -0.26285  -0.18863  -0.16967  -0.16789
 Alpha  occ. eigenvalues --   -0.15799  -0.15114  -0.13683  -0.12598  -0.05946
 Alpha  occ. eigenvalues --    0.28364
 Alpha virt. eigenvalues --    0.33253   0.35833   0.38586   0.45419   0.49189
 Alpha virt. eigenvalues --    0.52893   0.74234   0.76311   0.76415   0.77612
 Alpha virt. eigenvalues --    0.84433   0.86187   1.02499   1.05384   1.07353

  Beta  occ. eigenvalues --  -24.43381 -24.43381 -24.43381 -24.43381 -10.04845
  Beta  occ. eigenvalues --  -10.04823  -0.98996  -0.97591  -0.93191  -0.92292
  Beta  occ. eigenvalues --   -0.47600  -0.39519  -0.30959  -0.29026  -0.28938
  Beta  occ. eigenvalues --   -0.25999  -0.25817  -0.17919  -0.16555  -0.16341
  Beta  occ. eigenvalues --   -0.14672  -0.14520  -0.13114  -0.12025  -0.05159
  Beta virt. eigenvalues --    0.33806   0.36175   0.38403   0.39116   0.49170
  Beta virt. eigenvalues --    0.49695   0.54059   0.74674   0.76535   0.78768
  Beta virt. eigenvalues --    0.80247   0.84910   0.86744   1.04068   1.05770

 Mulliken charges and spin densities:
               1          2
     1  C    0.219149   0.454748
     2  C    0.219148   0.454749
     3  F   -0.337161   0.033632
     4  F   -0.337163   0.033633
     5  F   -0.337163   0.033633
     6  F   -0.337161   0.033632
     7  H   -0.044825  -0.022014
     8  H   -0.044825  -0.022014
 Sum of Mulliken charges =  -1.00000   1.00000

 Dipole moment (field-independent basis, Debye):
    X=             -0.0000    Y=              0.0000    Z=             -0.0000  Tot=              0.0000
 Quadrupole moment (field-independent basis, Debye-Ang):
   XX=            -41.8666   YY=            -40.2981   ZZ=            -32.4522
   XY=             -0.0000   XZ=              0.8185   YZ=              0.0000

 Normal termination of Gaussian 16 at Thu Jan 19 14:35:31 2023.
