 Gaussian 16, Revision C.01,
 Gaussian 16:  ES64L-G16RevC.01  3-Jul-2019

 -----------------------------
 # b3lyp/6-31g(d,p) geom=check
 -----------------------------

 ----
 test
 ----
 Structure from the checkpoint file:  "neutral_0.chk"
 Charge =  0 Multiplicity = 1

                         Standard orientation:
 ---------------------------------------------------------------------
 Center     Atomic      Atomic             Coordinates (Angstroms)
 Number     Number       Type             X           Y           Z
 ---------------------------------------------------------------------
      1          6           0       -0.855164    0.000004   -0.443113
      2          6           0        0.613457    0.000002   -0.002510
      3          9           0        0.724481   -0.000005    1.330284
      4          9           0        1.229332   -1.090926   -0.489668
      5          9           0        1.229338    1.090929   -0.489659
      6          9           0       -1.459257   -1.104134    0.058372
      7          9           0       -1.459264    1.104133    0.058371
      8          1           0       -0.931433    0.000000   -1.535562
 ---------------------------------------------------------------------

 SCF Done:  E(RB3LYP) =  -576.009228878     A.U. after   12 cycles

 The electronic state is 1-A.
 Alpha  occ. eigenvalues --  -24.74725 -24.74725 -24.74651 -24.73231 -24.73231
 Alpha  occ. eigenvalues --  -10.45304 -10.38062  -1.32858  -1.27556  -1.24047
 Alpha  occ. eigenvalues --   -1.23958  -1.21865  -0.78834  -0.68486  -0.61552
 Alpha  occ. eigenvalues --   -0.60892  -0.60769  -0.56480  -0.56070  -0.47921
 Alpha  occ. eigenvalues --   -0.47683  -0.47325  -0.45033  -0.43952  -0.43544
 Alpha  occ. eigenvalues --   -0.42086  -0.42062  -0.41583  -0.35941
 Alpha virt. eigenvalues --    0.07831   0.08359   0.12261   0.19139   0.21871
 Alpha virt. eigenvalues --    0.22696   0.24716   0.45100   0.47241   0.49199
 Alpha virt. eigenvalues --    0.53027   0.53497   0.60608   0.68043   0.79470

 Mulliken charges:
               1
     1  C    0.425061
     2  C    0.748323
     3  F   -0.245216
     4  F   -0.253157
     5  F   -0.253155
     6  F   -0.267002
     7  F   -0.266999
     8  H    0.112145
 Sum of Mulliken charges =  -0.00000

 Dipole moment (field-independent basis, Debye):
    X=             -0.2074    Y=              0.0000    Z=             -1.3434  Tot=              1.3593
 Quadrupole moment (field-independent basis, Debye-Ang):
   XX=            -36.9858   YY=            -37.2223   ZZ=            -33.7052
   XY=             -0.0000   XZ=              1.4784   YZ=             -0.0000

 Normal termination of Gaussian 16 at Thu Jan 19 15:03:16 2023.
