 Gaussian 16, Revision C.01,
 Gaussian 16:  ES64L-G16RevC.01  3-Jul-2019

 -----------------------------
 # b3lyp/6-31g(d,p) geom=check
 -----------------------------

 ----
 test
 ----
 Structure from the checkpoint file:  "neutral_1.chk"
 Charge =  0 Multiplicity = 1

                         Standard orientation:
 ---------------------------------------------------------------------
 Center     Atomic      Atomic             Coordinates (Angstroms)
 Number     Number       Type             X           Y           Z
 ---------------------------------------------------------------------
      1          6           0       -0.689060    0.000004   -0.325277
      2          6           0        0.689060    0.000001    0.325278
      3          9           0        1.363179   -1.105242   -0.090688
      4          9           0        1.363188    1.105238   -0.090695
      5          9           0       -1.363181   -1.105240    0.090687
      6          9           0       -1.363187    1.105238    0.090695
      7          1           0       -0.620660    0.000008   -1.418648
      8          1           0        0.620662    0.000007    1.418649
 ---------------------------------------------------------------------

 SCF Done:  E(RB3LYP) =  -476.763367047     A.U. after   11 cycles

 The electronic state is 1-A.
 Alpha  occ. eigenvalues --  -24.72249 -24.72248 -24.72248 -24.72248 -10.36566
 Alpha  occ. eigenvalues --  -10.36543  -1.27449  -1.25757  -1.21402  -1.20367
 Alpha  occ. eigenvalues --   -0.77740  -0.67221  -0.58818  -0.57333  -0.57222
 Alpha  occ. eigenvalues --   -0.53862  -0.53362  -0.45347  -0.43612  -0.43305
 Alpha  occ. eigenvalues --   -0.42203  -0.41627  -0.40218  -0.39333  -0.33749
 Alpha virt. eigenvalues --    0.07803   0.08471   0.12559   0.13729   0.20192
 Alpha virt. eigenvalues --    0.22338   0.24632   0.47558   0.50227   0.51367
 Alpha virt. eigenvalues --    0.51980   0.57922   0.59848   0.76513   0.80287

 Mulliken charges:
               1
     1  C    0.444713
     2  C    0.444713
     3  F   -0.276477
     4  F   -0.276478
     5  F   -0.276478
     6  F   -0.276476
     7  H    0.108241
     8  H    0.108242
 Sum of Mulliken charges =  -0.00000

 Dipole moment (field-independent basis, Debye):
    X=              0.0000    Y=              0.0000    Z=              0.0000  Tot=              0.0000
 Quadrupole moment (field-independent basis, Debye-Ang):
   XX=            -34.3187   YY=            -34.1252   ZZ=            -27.7019
   XY=             -0.0000   XZ=              1.6880   YZ=             -0.0000

 Normal termination of Gaussian 16 at Thu Jan 19 15:03:17 2023.
