 Gaussian 16, Revision B.01,
 Gaussian 16:  ES64L-G16RevB.01 20-Dec-2017

 ---------------------------
 # opt freq b3lyp/6-31g(d,p)
 ---------------------------

 -----
 C5F12
 -----
 Symbolic Z-matrix:
 Charge =  0 Multiplicity = 1

 SCF Done:  E(RB3LYP) =  -1388.56068954     A.U. after   12 cycles
 SCF Done:  E(RB3LYP) =  -1388.58980216     A.U. after   11 cycles
 SCF Done:  E(RB3LYP) =  -1388.59193624     A.U. after   10 cycles
 SCF Done:  E(RB3LYP) =  -1388.59207852     A.U. after   10 cycles
 SCF Done:  E(RB3LYP) =  -1388.59212851     A.U. after    8 cycles
 SCF Done:  E(RB3LYP) =  -1388.59212949     A.U. after    7 cycles
 SCF Done:  E(RB3LYP) =  -1388.59213021     A.U. after    6 cycles
 Optimization completed.
    -- Stationary point found.
 Normal termination of Gaussian 16 at Fri Aug  4 14:27:29 2023.

 ----------------------------------------------------------------------
 #N Geom=AllCheck Guess=TCheck SCRF=Check GenChk RB3LYP/6-31G(d,p) Freq
 ----------------------------------------------------------------------

 Structure from the checkpoint file:  "neutral_9.chk"
 -----
 C5F12
 -----
 Charge =  0 Multiplicity = 1

                         Standard orientation:
 ---------------------------------------------------------------------
 Center     Atomic      Atomic             Coordinates (Angstroms)
 Number     Number       Type             X           Y           Z
 ---------------------------------------------------------------------
      1          6           0        0.000000   -0.000000    0.300834
      2          6           0        0.000000   -1.309055   -0.537427
      3          6           0        0.000000   -2.616930    0.300883
      4          9           0        0.000000   -3.659665   -0.538121
      5          9           0        1.090075   -2.683029    1.073981
      6          9           0       -1.090075   -2.683029    1.073981
      7          9           0       -1.103267   -1.329097   -1.319667
      8          9           0        1.103267   -1.329097   -1.319667
      9          6           0        0.000000    1.309055   -0.537427
     10          6           0        0.000000    2.616930    0.300883
     11          9           0       -1.090075    2.683029    1.073981
     12          9           0        0.000000    3.659665   -0.538121
     13          9           0        1.090075    2.683029    1.073981
     14          9           0        1.103267    1.329097   -1.319667
     15          9           0       -1.103267    1.329097   -1.319667
     16          9           0        1.103334   -0.000000    1.086911
     17          9           0       -1.103334    0.000000    1.086911
 ---------------------------------------------------------------------

 SCF Done:  E(RB3LYP) =  -1388.59213021     A.U. after    1 cycles

 The electronic state is 1-A1.
 Alpha  occ. eigenvalues --  -24.76072 -24.76072 -24.76019 -24.76019 -24.76019
 Alpha  occ. eigenvalues --  -24.76019 -24.75934 -24.75934 -24.75814 -24.75814
 Alpha  occ. eigenvalues --  -24.75813 -24.75813 -10.47204 -10.47204 -10.41763
 Alpha  occ. eigenvalues --  -10.41519 -10.41518  -1.34616  -1.34421  -1.31676
 Alpha  occ. eigenvalues --   -1.29990  -1.29800  -1.26148  -1.25611  -1.25273
 Alpha  occ. eigenvalues --   -1.25246  -1.24920  -1.24264  -1.24253  -0.84287
 Alpha  occ. eigenvalues --   -0.81170  -0.75819  -0.70370  -0.68080  -0.64539
 Alpha  occ. eigenvalues --   -0.63934  -0.63042  -0.62407  -0.62354  -0.61923
 Alpha  occ. eigenvalues --   -0.60684  -0.59743  -0.59713  -0.58583  -0.57237
 Alpha  occ. eigenvalues --   -0.50612  -0.50249  -0.49765  -0.49370  -0.49192
 Alpha  occ. eigenvalues --   -0.48776  -0.48582  -0.48266  -0.47841  -0.47526
 Alpha  occ. eigenvalues --   -0.46276  -0.45661  -0.45189  -0.45045  -0.44454
 Alpha  occ. eigenvalues --   -0.44305  -0.43768  -0.43719  -0.43579  -0.43105
 Alpha  occ. eigenvalues --   -0.42838  -0.42228  -0.39746  -0.35041
 Alpha virt. eigenvalues --    0.01067   0.02692   0.07183   0.10456   0.13814
 Alpha virt. eigenvalues --    0.14726   0.17290   0.17865   0.18072   0.19946
 Alpha virt. eigenvalues --    0.21185   0.22313   0.22715   0.24851   0.26265

 Mulliken charges:
               1
     1  C    0.531132
     2  C    0.487013
     3  C    0.791625
     4  F   -0.246082
     5  F   -0.243771
     6  F   -0.243771
     7  F   -0.269441
     8  F   -0.269441
     9  C    0.487013
    10  C    0.791625
    11  F   -0.243771
    12  F   -0.246082
    13  F   -0.243771
    14  F   -0.269441
    15  F   -0.269441
    16  F   -0.271698
    17  F   -0.271698
 Sum of Mulliken charges =  -0.00000

 Dipole moment (field-independent basis, Debye):
    X=             -0.0000    Y=              0.0000    Z=              0.0948  Tot=              0.0948
 Quadrupole moment (field-independent basis, Debye-Ang):
   XX=            -87.4691   YY=            -87.0409   ZZ=            -87.5289
   XY=              0.0000   XZ=              0.0000   YZ=              0.0000

  Exact polarizability:  53.709  -0.000  63.265  -0.000   0.000  51.940
 Approx polarizability:  88.963  -0.000  73.690  -0.000   0.000  77.359

 ******    1 imaginary frequencies (negative Signs) ******

                      1                      2                      3
                     A2                     B1                     A2
 Frequencies --    -27.2788                23.4316                63.4861
 Red. masses --     18.7983                18.6632                18.7742
 Frc consts  --      0.0082                 0.0060                 0.0446
 IR Inten    --      0.0000                 0.0008                 0.0000

                      4                      5                      6
                     B1                     A1                     B2
 Frequencies --     66.4052                96.1665               179.8311
 Red. masses --     18.5349                18.0426                18.0376
 Frc consts  --      0.0482                 0.0983                 0.3437
 IR Inten    --      0.0186                 0.3288                 0.0354

                      7                      8                      9
                     A1                     B1                     A2
 Frequencies --    188.7991               189.2774               212.4369
 Red. masses --     17.7938                18.1885                18.7258
 Frc consts  --      0.3737                 0.3839                 0.4979
 IR Inten    --      0.0254                 5.2196                 0.0000

                     10                     11                     12
                     A2                     B1                     A1
 Frequencies --    242.0550               247.7381               284.8858
 Red. masses --     18.4852                18.6526                18.2020
 Frc consts  --      0.6381                 0.6745                 0.8704
 IR Inten    --      0.0000                 0.2912                 0.7260

                     13                     14                     15
                     B2                     B2                     A2
 Frequencies --    287.6505               312.2799               314.8736
 Red. masses --     18.3838                18.6714                18.7196
 Frc consts  --      0.8962                 1.0728                 1.0935
 IR Inten    --      7.6348                 0.0253                 0.0000

                     16                     17                     18
                     A1                     B2                     A1
 Frequencies --    352.2396               363.7836               372.9951
 Red. masses --     18.6866                18.6787                18.8163
 Frc consts  --      1.3660                 1.4564                 1.5424
 IR Inten    --      0.0077                 0.0332                 0.0153

                     19                     20                     21
                     B1                     A2                     B2
 Frequencies --    392.6051               465.3255               520.2523
 Red. masses --     18.3062                17.9895                17.7412
 Frc consts  --      1.6625                 2.2950                 2.8292
 IR Inten    --      1.3797                 0.0000                15.1267

                     22                     23                     24
                     A1                     B1                     A1
 Frequencies --    528.5244               534.9064               573.7801
 Red. masses --     17.9841                17.8066                17.3827
 Frc consts  --      2.9598                 3.0018                 3.3718
 IR Inten    --      9.4331                 1.7431                 5.1087

                     25                     26                     27
                     A2                     B1                     B2
 Frequencies --    591.6286               615.7244               621.1154
 Red. masses --     17.8714                17.8931                16.5297
 Frc consts  --      3.6856                 3.9968                 3.7572
 IR Inten    --      0.0000                 0.4100                44.0113

                     28                     29                     30
                     A1                     B2                     A1
 Frequencies --    703.8566               716.3833               755.4248
 Red. masses --     17.5407                15.9981                17.5723
 Frc consts  --      5.1200                 4.8374                 5.9083
 IR Inten    --      2.9165               120.4604                 2.3035

                     31                     32                     33
                     B2                     A1                     B2
 Frequencies --    835.3803              1062.3060              1150.1929
 Red. masses --     15.0009                13.1889                13.4643
 Frc consts  --      6.1679                 8.7692                10.4948
 IR Inten    --     99.6884                 6.2030                35.4254

                     34                     35                     36
                     A1                     B1                     A2
 Frequencies --   1165.6065              1198.3785              1201.9905
 Red. masses --     13.7483                13.1492                13.1491
 Frc consts  --     11.0053                11.1259                11.1931
 IR Inten    --    137.7003                 1.9861                 0.0000

                     37                     38                     39
                     A1                     B1                     B2
 Frequencies --   1232.3261              1239.6995              1258.6247
 Red. masses --     13.2329                12.9919                13.0018
 Frc consts  --     11.8401                11.7640                12.1352
 IR Inten    --    418.6860               146.5640                74.2752

                     40                     41                     42
                     A2                     B2                     B1
 Frequencies --   1260.8425              1278.0537              1279.3072
 Red. masses --     13.1127                12.6431                13.2225
 Frc consts  --     12.2818                12.1675                12.7501
 IR Inten    --      0.0000               129.7760               746.2885

                     43                     44                     45
                     A1                     B2                     A1
 Frequencies --   1307.9185              1350.4252              1391.2867
 Red. masses --     12.5491                12.2632                12.5145
 Frc consts  --     12.6480                13.1763                14.2724
 IR Inten    --    106.3584               111.2635                 5.6582

 - Thermochemistry -
 -------------------
 Temperature   298.150 Kelvin.  Pressure   1.00000 Atm.
 Atom     1 has atomic number  6 and mass  12.00000

 Molecular mass:   287.98084 amu.
 Principal axes and moments of inertia in atomic units:
                           1         2         3
     Eigenvalues --  1839.581055802.024536005.66474
           X           -0.00000   0.00000   1.00000
           Y            1.00000   0.00000  -0.00000
           Z           -0.00000   1.00000  -0.00000
 This molecule is an asymmetric top.
 Rotational symmetry number  2.
 Warning -- assumption of classical behavior for rotation
           may cause significant error
 Rotational temperatures (Kelvin)      0.04708     0.01493     0.01442
 Rotational constants (GHZ):           0.98106     0.31105     0.30051
    1 imaginary frequencies ignored.
 Zero-point vibrational energy     173639.2 (Joules/Mol)
                                   41.50076 (Kcal/Mol)
 Warning -- explicit consideration of  25 degrees of freedom as
           vibrations may cause significant error
 Vibrational temperatures:     33.71    91.34    95.54   138.36   258.74
          (Kelvin)            271.64   272.33   305.65   348.26   356.44
                              409.89   413.86   449.30   453.03   506.79
                              523.40   536.66   564.87   669.50   748.53
                              760.43   769.61   825.54   851.22   885.89
                              893.65  1012.69  1030.72  1086.89  1201.93
                             1528.42  1654.87  1677.05  1724.20  1729.40
                             1773.04  1783.65  1810.88  1814.07  1838.83
                             1840.64  1881.80  1942.96  2001.75

 Zero-point correction=                           0.066136 (Hartree/Particle)
 Thermal correction to Energy=                    0.080620
 Thermal correction to Enthalpy=                  0.081564
 Thermal correction to Gibbs Free Energy=         0.024219
 Sum of electronic and zero-point Energies=          -1388.525995
 Sum of electronic and thermal Energies=             -1388.511510
 Sum of electronic and thermal Enthalpies=           -1388.510566
 Sum of electronic and thermal Free Energies=        -1388.567911

                     E (Thermal)             CV                S
                      KCal/Mol        Cal/Mol-Kelvin    Cal/Mol-Kelvin
 Total                   50.590             52.154            120.693
 Electronic               0.000              0.000              0.000
 Translational            0.889              2.981             42.871
 Rotational               0.889              2.981             31.150
 Vibrational             48.812             46.192             46.672
 Vibration     1          0.593              1.985              6.320
 Vibration     2          0.597              1.972              4.346
 Vibration     3          0.598              1.970              4.257
 Vibration     4          0.603              1.952              3.531
 Vibration     5          0.629              1.867              2.330
 Vibration     6          0.633              1.855              2.240
 Vibration     7          0.633              1.855              2.235
 Vibration     8          0.643              1.822              2.023
 Vibration     9          0.658              1.776              1.788
 Vibration    10          0.661              1.767              1.747
 Vibration    11          0.683              1.702              1.504
 Vibration    12          0.685              1.697              1.488
 Vibration    13          0.701              1.650              1.350
 Vibration    14          0.702              1.645              1.337
 Vibration    15          0.729              1.571              1.156
 Vibration    16          0.737              1.547              1.106
 Vibration    17          0.744              1.528              1.067
 Vibration    18          0.760              1.486              0.990
 Vibration    19          0.823              1.327              0.751
 Vibration    20          0.875              1.205              0.609
 Vibration    21          0.883              1.187              0.591
 Vibration    22          0.890              1.173              0.576
 Vibration    23          0.930              1.088              0.497
 Vibration    24          0.949              1.050              0.464
 Vibration    25          0.975              0.999              0.423

 Optimization completed.
    -- Stationary point found.
 Normal termination of Gaussian 16 at Fri Aug  4 14:28:22 2023.
