 Gaussian 16, Revision C.01,
 Gaussian 16:  ES64L-G16RevC.01  3-Jul-2019

 ----------------------------------
 # opt=calcfc freq b3lyp/6-31g(d,p)
 ----------------------------------

 ----
 test
 ----
 Symbolic Z-matrix:
 Charge =  0 Multiplicity = 1

 SCF Done:  E(RB3LYP) =  -1518.50425588     A.U. after   13 cycles
 SCF Done:  E(RB3LYP) =  -1518.50490282     A.U. after   10 cycles
 SCF Done:  E(RB3LYP) =  -1518.50490415     A.U. after    8 cycles
 Optimization completed.
    -- Stationary point found.
 Normal termination of Gaussian 16 at Wed Feb  1 14:07:45 2023.

 ----------------------------------------------------------------------
 #N Geom=AllCheck Guess=TCheck SCRF=Check GenChk RB3LYP/6-31G(d,p) Freq
 ----------------------------------------------------------------------

 Structure from the checkpoint file:  "mol_0.chk"
 ----
 test
 ----
 Charge =  0 Multiplicity = 1

                         Standard orientation:
 ---------------------------------------------------------------------
 Center     Atomic      Atomic             Coordinates (Angstroms)
 Number     Number       Type             X           Y           Z
 ---------------------------------------------------------------------
      1          6           0       -0.000014    0.000010    0.251325
      2          9           0       -0.000019   -0.000003    1.589345
      3         17           0        0.784155    1.506809   -0.310036
      4         17           0       -1.697024   -0.074321   -0.310049
      5         17           0        0.912884   -1.432490   -0.310036
 ---------------------------------------------------------------------

 SCF Done:  E(RB3LYP) =  -1518.50490415     A.U. after    1 cycles

 The electronic state is 1-A.
 Alpha  occ. eigenvalues -- -101.58316-101.58316-101.58315 -24.76262 -10.45898
 Alpha  occ. eigenvalues --   -9.50075  -9.50075  -9.50073  -7.26550  -7.26548
 Alpha  occ. eigenvalues --   -7.26547  -7.25426  -7.25426  -7.25425  -7.25418
 Alpha  occ. eigenvalues --   -7.25417  -7.25417  -1.28851  -0.94604  -0.86189
 Alpha  occ. eigenvalues --   -0.86189  -0.67146  -0.56140  -0.54763  -0.54763
 Alpha  occ. eigenvalues --   -0.43114  -0.43114  -0.37588  -0.36556  -0.36555
 Alpha  occ. eigenvalues --   -0.33765  -0.33765  -0.32442
 Alpha virt. eigenvalues --   -0.06438  -0.00330  -0.00329   0.09525   0.26304
 Alpha virt. eigenvalues --    0.35022   0.35022   0.38596   0.39175   0.39176
 Alpha virt. eigenvalues --    0.40745   0.45798   0.45798   0.47926   0.48087

 Mulliken charges:
               1
     1  C    0.015124
     2  F   -0.194480
     3  Cl   0.059791
     4  Cl   0.059789
     5  Cl   0.059775
 Sum of Mulliken charges =  -0.00000

 Dipole moment (field-independent basis, Debye):
    X=             -0.0001    Y=              0.0001    Z=             -0.1709  Tot=              0.1709
 Quadrupole moment (field-independent basis, Debye-Ang):
   XX=            -46.9861   YY=            -46.9863   ZZ=            -48.1981
   XY=              0.0001   XZ=              0.0000   YZ=             -0.0000

  Exact polarizability:      46.784      -0.000      46.784       0.000       0.000      29.260
 Approx polarizability:      68.331      -0.000      68.330      -0.000       0.000      45.329

                      1                      2                      3
                      A                      A                      A
 Frequencies --    243.4565               243.4740               347.3205
 Red. masses --     29.9023                29.9020                25.8941
 Frc consts  --      1.0442                 1.0444                 1.8404
 IR Inten    --      0.0101                 0.0101                 0.0000

                      4                      5                      6
                      A                      A                      A
 Frequencies --    391.9864               391.9916               521.4626
 Red. masses --     25.4912                25.4905                22.2831
 Frc consts  --      2.3077                 2.3077                 3.5700
 IR Inten    --      0.4208                 0.4192                 4.6729

                      7                      8                      9
                      A                      A                      A
 Frequencies --    809.3652               809.4337              1139.0728
 Red. masses --     12.8112                12.8111                13.7218
 Frc consts  --      4.9446                 4.9454                10.4897
 IR Inten    --    308.3023               308.3022               205.3962

 - Thermochemistry -
 -------------------
 Temperature   298.150 Kelvin.  Pressure   1.00000 Atm.
 Atom     1 has atomic number  6 and mass  12.00000

 Molecular mass:   135.90496 amu.
 Principal axes and moments of inertia in atomic units:
                           1         2         3
     Eigenvalues --   750.54864 750.563561080.94813
           X            1.00000  -0.00000   0.00000
           Y            0.00000   1.00000   0.00000
           Z           -0.00000  -0.00000   1.00000
 This molecule is an asymmetric top.
 Rotational symmetry number  1.
 Warning -- assumption of classical behavior for rotation
           may cause significant error
 Rotational temperatures (Kelvin)      0.11540     0.11540     0.08013
 Rotational constants (GHZ):           2.40456     2.40451     1.66959
 Zero-point vibrational energy      29293.9 (Joules/Mol)
                                    7.00142 (Kcal/Mol)
 Warning -- explicit consideration of   6 degrees of freedom as
           vibrations may cause significant error
 Vibrational temperatures:    350.28   350.30   499.72   563.98   563.99
          (Kelvin)            750.27  1164.50  1164.59  1638.87

 Zero-point correction=                           0.011157 (Hartree/Particle)
 Thermal correction to Energy=                    0.016362
 Thermal correction to Enthalpy=                  0.017306
 Thermal correction to Gibbs Free Energy=        -0.018952
 Sum of electronic and zero-point Energies=          -1518.493747
 Sum of electronic and thermal Energies=             -1518.488542
 Sum of electronic and thermal Enthalpies=           -1518.487598
 Sum of electronic and thermal Free Energies=        -1518.523856

                     E (Thermal)             CV                S
                      KCal/Mol        Cal/Mol-Kelvin    Cal/Mol-Kelvin
 Total                   10.267             16.785             76.311
 Electronic               0.000              0.000              0.000
 Translational            0.889              2.981             40.632
 Rotational               0.889              2.981             27.901
 Vibrational              8.490             10.824              7.778
 Vibration     1          0.659              1.774              1.777
 Vibration     2          0.659              1.774              1.777
 Vibration     3          0.725              1.581              1.178
 Vibration     4          0.759              1.487              0.993
 Vibration     5          0.759              1.487              0.993
 Vibration     6          0.876              1.202              0.607

 Optimization completed.
    -- Stationary point found.
 Normal termination of Gaussian 16 at Wed Feb  1 14:07:50 2023.
