 Gaussian 16, Revision C.01,
 Gaussian 16:  ES64L-G16RevC.01  3-Jul-2019

 -----------------------------
 # b3lyp/6-31g(d,p) geom=check
 -----------------------------

 ----
 test
 ----
 Structure from the checkpoint file:  "cation_1.chk"
 Charge =  1 Multiplicity = 2

                         Standard orientation:
 ---------------------------------------------------------------------
 Center     Atomic      Atomic             Coordinates (Angstroms)
 Number     Number       Type             X           Y           Z
 ---------------------------------------------------------------------
      1          6           0       -0.689060    0.000004   -0.325277
      2          6           0        0.689060    0.000001    0.325278
      3          9           0        1.363179   -1.105242   -0.090688
      4          9           0        1.363188    1.105238   -0.090695
      5          9           0       -1.363181   -1.105240    0.090687
      6          9           0       -1.363187    1.105238    0.090695
      7          1           0       -0.620660    0.000008   -1.418648
      8          1           0        0.620662    0.000007    1.418649
 ---------------------------------------------------------------------

 SCF Done:  E(UB3LYP) =  -476.321060157     A.U. after   15 cycles

 The electronic state is 2-A.
 Alpha  occ. eigenvalues --  -25.02058 -25.02058 -25.02058 -25.02058 -10.67576
 Alpha  occ. eigenvalues --  -10.67553  -1.56260  -1.54410  -1.50055  -1.48994
 Alpha  occ. eigenvalues --   -1.08390  -0.95605  -0.87331  -0.86394  -0.85280
 Alpha  occ. eigenvalues --   -0.81816  -0.81660  -0.73562  -0.72461  -0.72176
 Alpha  occ. eigenvalues --   -0.70156  -0.69262  -0.67964  -0.67890  -0.63864
 Alpha virt. eigenvalues --   -0.21016  -0.18560  -0.11579  -0.11131  -0.07692
 Alpha virt. eigenvalues --   -0.05684  -0.05541   0.20883   0.23420   0.25394
 Alpha virt. eigenvalues --    0.25844   0.30564   0.32640   0.50017   0.54484

  Beta  occ. eigenvalues --  -25.01559 -25.01559 -25.01559 -25.01559 -10.67276
  Beta  occ. eigenvalues --  -10.67258  -1.55194  -1.53365  -1.48914  -1.47825
  Beta  occ. eigenvalues --   -1.06074  -0.94272  -0.86175  -0.84662  -0.84575
  Beta  occ. eigenvalues --   -0.81191  -0.80227  -0.71873  -0.69432  -0.69321
  Beta  occ. eigenvalues --   -0.69005  -0.68342  -0.67170  -0.65393
  Beta virt. eigenvalues --   -0.54717  -0.20325  -0.17784  -0.10611  -0.10149
  Beta virt. eigenvalues --   -0.07285  -0.05232  -0.03410   0.21367   0.23636
  Beta virt. eigenvalues --    0.25821   0.26384   0.31900   0.33916   0.50340

 Mulliken charges and spin densities:
               1          2
     1  C    0.457623   0.116516
     2  C    0.457623   0.116516
     3  F   -0.124704   0.145512
     4  F   -0.124705   0.145513
     5  F   -0.124705   0.145513
     6  F   -0.124704   0.145512
     7  H    0.291786   0.092459
     8  H    0.291786   0.092459
 Sum of Mulliken charges =   1.00000   1.00000

 Dipole moment (field-independent basis, Debye):
    X=              0.0000    Y=              0.0000    Z=              0.0000  Tot=              0.0000
 Quadrupole moment (field-independent basis, Debye-Ang):
   XX=            -25.6587   YY=            -28.4881   ZZ=            -22.8361
   XY=             -0.0000   XZ=              2.8292   YZ=             -0.0000

 Normal termination of Gaussian 16 at Thu Jan 19 14:21:08 2023.
