 Gaussian 16, Revision C.01,
 Gaussian 16:  ES64L-G16RevC.01  3-Jul-2019

 -----------------------------
 # b3lyp/6-31g(d,p) geom=check
 -----------------------------

 ----
 test
 ----
 Structure from the checkpoint file:  "cation_0.chk"
 Charge =  1 Multiplicity = 2

                         Standard orientation:
 ---------------------------------------------------------------------
 Center     Atomic      Atomic             Coordinates (Angstroms)
 Number     Number       Type             X           Y           Z
 ---------------------------------------------------------------------
      1          6           0       -0.855164    0.000004   -0.443113
      2          6           0        0.613457    0.000002   -0.002510
      3          9           0        0.724481   -0.000005    1.330284
      4          9           0        1.229332   -1.090926   -0.489668
      5          9           0        1.229338    1.090929   -0.489659
      6          9           0       -1.459257   -1.104134    0.058372
      7          9           0       -1.459264    1.104133    0.058371
      8          1           0       -0.931433    0.000000   -1.535562
 ---------------------------------------------------------------------

 SCF Done:  E(UB3LYP) =  -575.543085711     A.U. after   16 cycles

 The electronic state is 2-A.
 Alpha  occ. eigenvalues --  -25.05395 -25.05395 -25.02078 -25.01793 -25.01793
 Alpha  occ. eigenvalues --  -10.75156 -10.70110  -1.60079  -1.57632  -1.52803
 Alpha  occ. eigenvalues --   -1.50492  -1.50098  -1.09765  -0.96016  -0.90046
 Alpha  occ. eigenvalues --   -0.88824  -0.88086  -0.84756  -0.84590  -0.76454
 Alpha  occ. eigenvalues --   -0.75544  -0.73512  -0.73420  -0.71762  -0.71531
 Alpha  occ. eigenvalues --   -0.69804  -0.69467  -0.67428  -0.66572
 Alpha virt. eigenvalues --   -0.21400  -0.19855  -0.13338  -0.08013  -0.06436
 Alpha virt. eigenvalues --   -0.05411  -0.04605   0.19288   0.21838   0.22366
 Alpha virt. eigenvalues --    0.27196   0.28113   0.33173   0.41132   0.52603

  Beta  occ. eigenvalues --  -25.04735 -25.04735 -25.01731 -25.01477 -25.01476
  Beta  occ. eigenvalues --  -10.74882 -10.69825  -1.59166  -1.56460  -1.51316
  Beta  occ. eigenvalues --   -1.49682  -1.49288  -1.07193  -0.94851  -0.88131
  Beta  occ. eigenvalues --   -0.87957  -0.87328  -0.84003  -0.83678  -0.74422
  Beta  occ. eigenvalues --   -0.72537  -0.72267  -0.71350  -0.70758  -0.69432
  Beta  occ. eigenvalues --   -0.68748  -0.68359  -0.67089
  Beta virt. eigenvalues --   -0.57217  -0.20540  -0.18891  -0.12182  -0.06562
  Beta virt. eigenvalues --   -0.05576  -0.04929  -0.03869   0.19792   0.22068
  Beta virt. eigenvalues --    0.22700   0.27838   0.28485   0.34366   0.41877

 Mulliken charges and spin densities:
               1          2
     1  C    0.434808   0.110388
     2  C    0.821535   0.107148
     3  F   -0.124211   0.102897
     4  F   -0.135699   0.093121
     5  F   -0.135697   0.093121
     6  F   -0.086361   0.193314
     7  F   -0.086359   0.193312
     8  H    0.311984   0.106699
 Sum of Mulliken charges =   1.00000   1.00000

 Dipole moment (field-independent basis, Debye):
    X=             -1.6997    Y=              0.0000    Z=             -2.2593  Tot=              2.8273
 Quadrupole moment (field-independent basis, Debye-Ang):
   XX=            -27.6289   YY=            -31.7519   ZZ=            -28.5697
   XY=             -0.0000   XZ=              2.5934   YZ=             -0.0000

 Normal termination of Gaussian 16 at Thu Jan 19 14:21:06 2023.
